################################################################################
# Symmetry function scaling data.
################################################################################
# Col  Name     Description
################################################################################
# 1    e_index  Element index.
# 2    sf_index Symmetry function index.
# 3    sf_min   Symmetry function minimum.
# 4    sf_max   Symmetry function maximum.
# 5    sf_mean  Symmetry function mean.
# 6    sf_sigma Symmetry function sigma.
#########################################################################################################################
#        1          2                        3                        4                        5                        6
#  e_index   sf_index                   sf_min                   sf_max                  sf_mean                 sf_sigma
#########################################################################################################################
         1          1   0.0000000000000000E+00   9.0304516052098605E-02   4.8426824809183658E-02   1.3889040235028826E-02
         1          2   0.0000000000000000E+00   4.6510781455971942E-02   8.1159764957786035E-06   1.9919632989341508E-04
         1          3   9.9667732893147283E-35   1.4864772418226502E-01   2.3994051881785069E-03   6.1733800280778968E-03
         1          4   8.5949844037238425E-03   1.2878200748080634E-01   6.0352298727025265E-02   1.3816586167240333E-02
         1          5   3.7480575537176307E-06   7.0054573990338972E-02   2.7948544554816462E-02   1.0341250419309826E-02
         1          6   1.1838724795794694E-02   3.0019601093397591E-01   1.6725017965963268E-01   3.0221956388341378E-02
         1          7   7.1602326286524388E-04   4.6577201659756301E-01   1.5875606873797715E-01   6.6308292476502675E-02
         1          8   1.8683283724398853E-09   7.8683447975832854E-01   2.0171825266471125E-01   1.2263659684953156E-01
         1          9   9.4858223611204303E-07   5.9201960956614574E-01   3.0490935422093585E-01   8.8395388577418202E-02
         1         10   3.0491234232784534E-16   5.8214078246549594E-01   2.9259073197838489E-02   3.9935601334165474E-02
         1         11   6.2434358202559676E-12   6.0221938368918448E-01   2.4722330740127926E-01   9.7525228305611139E-02
         1         12   4.7806888512909107E-27   2.5063433656586637E-01   1.1031396676132073E-03   5.0662282365881656E-03
         1         13   1.9925681288692154E-20   4.9932087810054643E-01   5.8565802125195923E-02   5.3329973181349466E-02
         1         14   3.7865925521356791E-01   3.3921688984564544E+00   2.2560500193116293E+00   3.9704730589884801E-01
         1         15   5.1200034364445368E-02   3.4378323532897720E-01   2.3656126841114744E-01   3.9035276204983906E-02
         1         16   2.1931042337441010E-02   1.8255792205940033E-01   1.1427055966283249E-01   1.9822981536203207E-02
         1         17   9.0216439429705364E-02   7.7509217588460000E-01   5.5104139981699551E-01   1.0441657162430684E-01
         1         18   4.0131545945555847E-02   4.8409132908907321E-01   2.8766646811158192E-01   5.3623677373076613E-02
         1         19   1.1222609556809869E-01   1.2800341548348642E+00   7.6478719310806209E-01   1.6188166468635340E-01
         1         20   2.1388301120135456E-02   7.7351767555726592E-01   4.4888928664400379E-01   9.7666647735930590E-02
         1         21   7.4061704024361340E-03   1.8611858506303602E+00   1.1288690326184223E+00   2.8450325407397875E-01
         1         22   9.9599947270490280E-04   1.0060624663164979E+00   2.2522363740992513E-01   1.2516284203436184E-01
         1         23   1.8697518232306966E-05   1.8302543935907349E+00   8.9506340684669194E-01   2.9913664520335864E-01
         1         24   3.4901230438759606E-10   1.3330559686995955E+00   2.7221233442480386E-01   1.9127503403246957E-01
         1         25   2.8523425442794221E-07   1.0848862505202237E+00   5.6646738074153813E-01   1.6416350356085893E-01
         1         26   5.2198328872619242E-18   8.3698564320978930E-01   2.4165941354856422E-02   4.1615233060191659E-02
         1         27   2.6247872994820541E-13   9.5666284087956832E-01   3.1045353145046778E-01   1.4354622024560712E-01
         1         28   4.9565532068959733E-23   5.9631256679955069E-01   4.6047959495212600E-02   5.3958389487149185E-02
         1         29   1.3934804835608909E+00   8.0021073618965737E+00   5.8139507860081876E+00   9.4917185576228613E-01
         1         30   8.8527932028596112E-01   4.1049719942266476E+00   3.0931706141823310E+00   4.7631494000365904E-01
         1         31   1.6904973007915605E-01   7.2301452126523191E-01   5.4647418969674455E-01   8.5307011811325203E-02
         1         32   6.8497222468687474E-02   3.9730692961389380E-01   2.7584134752083489E-01   4.6063908382887896E-02
         1         33   3.7557998571117884E-01   1.8217485233447894E+00   1.2717767845825028E+00   2.0480051785556133E-01
         1         34   1.5894141853578783E-01   8.8098170550721455E-01   6.3258478494609338E-01   1.0696669299480570E-01
         1         35   5.1800323716598429E-01   2.6744753081740806E+00   1.9329291033279625E+00   3.0009040967375100E-01
         1         36   2.0327122316981031E-01   1.4112990031158217E+00   9.3238463048174869E-01   1.4779503944740655E-01
         1         37   4.3021554679183721E-01   3.0748720466011039E+00   2.2579619922630356E+00   3.9475548434374508E-01
         1         38   1.7950251998606895E-01   1.8311173085034411E+00   1.1362326537832041E+00   2.0161906542440033E-01
         1         39   3.1992521444229405E-01   3.2638115261436327E+00   2.0116641310521439E+00   4.1810603832485227E-01
         1         40   7.5708430398844465E-02   1.9972881300265188E+00   1.1650135777912047E+00   2.3953124311649537E-01
         1         41   3.3236877377597446E-01   2.7998870189715932E+00   1.6000630401321654E+00   3.5294032302033834E-01
         1         42   5.8035604016367179E-03   1.7413809077280811E+00   8.7792413243510481E-01   2.6311399005133596E-01
         1         43   1.5823256358346680E-01   2.5825286516066353E+00   1.4397320966294980E+00   2.4330085063476051E-01
         1         44   3.1104288097934371E-04   1.4080501493732238E+00   4.7566570463124130E-01   1.9343809631636202E-01
         1         45   9.3523441956184822E-04   1.4574388298160208E+00   5.3448663242744143E-01   2.0579687134038369E-01
         1         46   5.1910069927979089E-07   3.4213291975403286E-02   6.1876995534221688E-03   3.5101345226306278E-03
         1         47   1.5689825729063198E-04   6.7875246563090144E-02   2.3663481155702135E-02   9.2867227809788483E-03
         1         48   0.0000000000000000E+00   8.6724518738342388E-03   1.3981514384478293E-03   8.4837830533682570E-04
         1         49   1.3496455009597388E-03   3.2005155230926824E-01   1.1163964993742673E-01   4.1519780656449963E-02
         1         50   3.4253969978481646E-03   3.5022089096506576E-01   1.5396938270107249E-01   5.0741074513679381E-02
         1         51   2.9813479846615336E-04   1.0785264334137062E-01   4.9082896264626322E-02   1.6174565508802641E-02
         1         52   6.6634603308168283E-03   7.5206939238605985E-01   3.0477844581206964E-01   1.0947590086994537E-01
         1         53   2.3792276755639937E-02   9.3813521855654436E-01   4.7245806838139326E-01   1.4310963810041688E-01
         1         54   1.0693116970178632E-03   1.6161594880366814E-01   7.5022673516799934E-02   2.6810532727081261E-02
         1         55   1.9100349274802081E-05   2.7109143017812046E-02   1.1082315098494062E-02   3.5605526381468802E-03
         1         56   1.6814778195653277E-02   5.4545188365378361E-01   2.8160584218256102E-01   8.4073419872366856E-02
         1         57   1.3152073212566598E-07   1.9778237606700937E-02   5.0735692526922577E-03   2.5221546210850857E-03
         1         58   3.4323997294771988E-09   1.4565656096613136E-02   1.5511125579959625E-03   1.4184847322017676E-03
         1         59   7.2487017205411441E-04   1.1670375464612200E-01   3.8445974168370464E-02   1.6247919509871901E-02
         1         60   7.0556075577626488E-03   1.7648910644060087E-01   9.4304389900108143E-02   2.8956484931147712E-02
         1         61   5.7820494085206775E-05   1.7512683261820417E-02   5.1655230687582361E-03   2.2976171058439513E-03
         2          1   0.0000000000000000E+00   3.6942175762626692E-02   5.2771913041367311E-03   5.0822768677214547E-03
         2          2   2.8903267124818986E-13   1.5418853501928384E-01   4.7988103763570234E-03   8.9490905798492604E-03
         2          3   1.7034124674130014E-22   2.9408696270376993E-02   5.0167358938624621E-05   3.3066761078319630E-04
         2          4   7.6858877663001806E-04   1.0773495189869334E-01   5.5897089109632418E-02   1.7132814120072819E-02
         2          5   1.2614249186583350E-04   1.0432509419220386E-01   5.9925837772475031E-02   1.7620065874126411E-02
         2          6   7.2638959548846662E-04   2.6302255265704522E-01   9.8503897581832339E-02   3.4091302956792816E-02
         2          7   1.9442232309780344E-02   7.7941211969816837E-01   3.1751213747595552E-01   9.8730397215833224E-02
         2          8   4.5339142762846870E-13   2.9556433368384732E-01   3.0765062384263322E-02   3.4053609121346737E-02
         2          9   1.2331038548959405E-02   1.0900954415224142E+00   6.0981870844187780E-01   1.4643421285312944E-01
         2         10   5.4744924328951769E-21   2.2997622254848485E-01   3.5206977608641288E-03   1.1434616300981923E-02
         2         11   6.3338716094332975E-04   1.0474675314538213E+00   4.9444661480255558E-01   1.5303589725072761E-01
         2         12   2.0964881388565379E-33   1.5310354451490546E-01   2.2352200330260277E-04   2.8054314685032368E-03
         2         13   2.6331012767647749E-07   6.0545087249905682E-01   1.1713160425039239E-01   8.0308952381161230E-02
         2         14   3.5606785442280326E-52   7.9234104380733431E-02   7.5791056042052856E-06   3.9535737648024438E-04
         2         15   1.1844029856098651E-01   1.4348229488849384E+00   9.6742844853469601E-01   1.9215418263455336E-01
         2         16   7.0616856181319937E-02   3.2375416544957741E-01   2.2854111932566509E-01   3.5840700229470987E-02
         2         17   1.4015218242652245E-02   1.7570029427900311E-01   1.0450942878841617E-01   2.4545997265489745E-02
         2         18   1.3728704321272400E-01   9.0024310879668823E-01   5.7533293622316750E-01   9.4863274891843111E-02
         2         19   3.1265263596945293E-02   4.3870029014231315E-01   2.0859781770419628E-01   4.5728036496619898E-02
         2         20   1.1147022334511617E-01   1.3026239749278936E+00   8.9777857328801169E-01   1.7690470766330069E-01
         2         21   1.7176299791649665E-02   1.3705978558415106E+00   4.5044727481985131E-01   1.7941061102558636E-01
         2         22   5.2379526169886648E-07   9.9581240298125229E-01   3.2554686459365784E-01   1.5984078112828501E-01
         2         23   2.6022531097024230E-02   1.9419008273797693E+00   1.1329347614830740E+00   2.7365739092194197E-01
         2         24   2.4629668359893182E-04   1.4787387211429521E+00   6.2090706290093711E-01   2.2141204690837094E-01
         2         25   2.2906200971624848E-08   6.7045131952671977E-01   9.2095918990425588E-02   8.0685321533492754E-02
         2         26   1.8801383669423513E+00   8.2453258104147658E+00   6.1863412283647410E+00   9.5024534265848304E-01
         2         27   6.7173933280958442E-01   3.7351491056973920E+00   2.7298869015083915E+00   4.7042217383770157E-01
         2         28   1.7314805946833636E-01   7.6061396936026127E-01   5.5168269504166645E-01   8.9817620744526719E-02
         2         29   7.6039996910806054E-02   3.6176495239251755E-01   2.7020266642896046E-01   3.8266903733280497E-02
         2         30   3.7095449676306214E-01   1.7317731678696777E+00   1.2651695698921830E+00   2.0491742055777626E-01
         2         31   1.4522744116341232E-01   9.3108296491049802E-01   6.7336350962764902E-01   1.2327853572420848E-01
         2         32   6.0260051452258112E-01   2.4521415220091964E+00   1.8647692609635034E+00   2.7794601943512515E-01
         2         33   1.6128214146193573E-01   1.6501277415159663E+00   9.9204038036306896E-01   2.1728620175163696E-01
         2         34   6.0456545708985698E-01   3.4152431302658215E+00   2.2724653075664007E+00   3.6209580967062288E-01
         2         35   1.2008675354920741E-01   1.5999905841854940E+00   9.0491088951915977E-01   1.9180194772078421E-01
         2         36   3.3598643585391802E-01   3.4158433949867217E+00   2.3300271555823904E+00   4.3505824925511266E-01
         2         37   1.2729845612703977E-01   1.7610180366713504E+00   8.9515589596422374E-01   1.6303193392259907E-01
         2         38   7.1339680061183616E-02   3.3033436262593980E+00   1.7558482648702305E+00   4.5983789260333696E-01
         2         39   8.9921305681336591E-02   2.3181076364700006E+00   1.2770548022461097E+00   2.6272065929606908E-01
         2         40   9.3942780554029347E-03   2.2661409401910855E+00   9.5133140926248416E-01   2.9979351180070191E-01
         2         41   1.4508710987108828E-03   2.3128727537490845E+00   1.2046162252438906E+00   3.9442696545396427E-01
         2         42   5.1821093753045021E-02   2.3662646925809874E+00   1.0689732648548806E+00   3.1058298928527606E-01
         2         43   8.9911152443290232E-13   7.8079551717913687E-01   6.3038178835424771E-02   8.3380843700628843E-02
         2         44   4.2605989632993368E-05   3.0496857052702130E-02   1.1115582135140819E-02   4.3649760985104494E-03
         2         45   8.0640757413845185E-05   5.8855821411801637E-02   1.8653600412613169E-02   7.8929201225524850E-03
         2         46   2.1514070466989371E-06   3.6381941115534916E-02   1.0330381504760247E-02   4.9268655024375906E-03
         2         47   1.3348957300715818E-02   4.2272689178294254E-01   2.0651471521916157E-01   6.0757227681003417E-02
         2         48   1.8434176905069329E-03   2.3877062555121825E-01   1.0699392862750985E-01   3.8956384525569182E-02
         2         49   2.6857065700068218E-02   8.6857566646879003E-01   4.1991273586330274E-01   1.3350411509760080E-01
         2         50   1.5951710054252947E-02   7.7966418419435168E-01   3.8942835049819297E-01   1.2806625592978133E-01
         2         51   3.4311569683541452E-04   1.0080309423751053E-01   3.9878544071124768E-02   1.7215206565359593E-02
         2         52   9.8057298107948505E-03   4.3822844134545952E-01   2.0157977471883071E-01   6.8404638315235147E-02
         2         53   1.2611795460327683E-02   4.7975350808608225E-01   2.4603975425572469E-01   7.8834031456680304E-02
         2         54   3.6067995722822573E-05   3.0342683821880313E-02   9.8905766906410199E-03   4.6835707262418711E-03
         2         55   2.2661005026378112E-03   1.2158006194472100E-01   5.0631549050362754E-02   1.9433520367828382E-02
         2         56   6.8349612055994035E-03   1.6061522319009933E-01   8.7157848764366219E-02   2.6871302061763549E-02
